[Molden Format]

[FREQ]
        -908.6689457787
        1663.6481649621
        1663.6481650081
        3804.3257281853
        4036.9454979194
        4036.9454979587

[FR-COORD]
N          0.0000000000       -0.0000000000        0.0000000000
H          0.0000000000       -0.0000000000       -1.8755126802
H          1.6242416262        0.0000000000        0.9377563401
H         -1.6242416262       -0.0000000000        0.9377563401

[FR-NORM-COORD]
vibration 1
          -0.0000000000       -0.1237012007       -0.0000000000
           0.0000000000        0.5729159371       -0.0000000000
           0.0000000000        0.5729159371       -0.0000000000
           0.0000000000        0.5729159371        0.0000000000
vibration 2
           0.0032518795       -0.0000000000       -0.0801340425
          -0.0328841334       -0.0000000000       -0.0680696069
          -0.3865132312        0.0000000000        0.6061753888
           0.3742146124        0.0000000000        0.5753046731
vibration 3
          -0.0801340425        0.0000000000       -0.0032518795
           0.8103432436       -0.0000000000       -0.0027622986
           0.1360982478       -0.0000000000       -0.3563913963
           0.1669689636       -0.0000000000        0.4043364472
vibration 4
          -0.0000000000       -0.0000000000       -0.0000000000
          -0.0000000000        0.0000000000        0.5773502692
          -0.4999999999        0.0000000000       -0.2886751345
           0.5000000001        0.0000000000       -0.2886751347
vibration 5
           0.0129193695        0.0000000000       -0.0856490742
           0.0016436019       -0.0000000000        0.8042550979
           0.2623959743       -0.0000000000        0.1396491791
          -0.4435458210       -0.0000000000        0.2461339599
vibration 6
          -0.0856490742        0.0000000000       -0.0129193695
          -0.0108962733       -0.0000000000        0.1213144317
           0.6537096456       -0.0000000000        0.3820668042
           0.5472248646       -0.0000000000       -0.3238749911
